 Q-Chem 5.2 (devel), Q-Chem, Inc., Pleasanton, CA (2019)
 Q-Chem 5.2.0 for Intel X86 EM64T Linux

User input:
--------------------------------------------------------------
$molecule
0 1
    He  0   0   0
$end
$rem
    BASIS STO-3G
    EXCHANGE hf
    CORRELATION none
    UNRESTRICTED true
    SCF_GUESS CORE
    SCF_ALGORITHM DIIS
    SCF_CONVERGENCE 13
    SCF_MAX_CYCLES 1000
    MOM_START 1
    SCF_PRINT 1
    PRINT_ORBITALS true
$end
--------------------------------------------------------------

             Standard Nuclear Orientation (Angstroms)
    I     Atom           X                Y                Z
 ----------------------------------------------------------------
    1      He      0.0000000000     0.0000000000     0.0000000000
 ----------------------------------------------------------------

    2      -2.8077839575      0.00e+00  Convergence criterion met
 Total energy in the final basis set =       -2.8077839575

                    Orbital Energies (a.u.)
 --------------------------------------------------------------

 Alpha MOs
 -- Occupied --
 -0.8760

 Beta MOs
 -- Occupied --
 -0.8760

          Ground-State Mulliken Net Atomic Charges

     Atom                 Charge (a.u.)    Spin (a.u.)
  --------------------------------------------------------
      1 He                   -0.000000       0.000000
  --------------------------------------------------------
  Sum of atomic charges =    -0.000000

                    Cartesian Multipole Moments
 -----------------------------------------------------------------
    Charge (ESU x 10^10)
                -0.0000
    Dipole Moment (Debye)
         X       0.0000      Y       0.0000      Z       0.0000
       Tot       0.0000
    Quadrupole Moments (Debye-Ang)
        XX      -0.9407     XY       0.0000     YY      -0.9407
        XZ       0.0000     YZ       0.0000     ZZ      -0.9407

 STANDARD THERMODYNAMIC QUANTITIES AT   298.15 K  AND     1.00 ATM

   Translational Enthalpy:        0.889 kcal/mol
   Rotational Enthalpy:           0.000 kcal/mol
   Vibrational Enthalpy:          0.000 kcal/mol
   gas constant (RT):             0.592 kcal/mol
   Translational Entropy:        30.125  cal/mol.K
   Rotational Entropy:            0.000  cal/mol.K
   Vibrational Entropy:           0.000  cal/mol.K

   Total Enthalpy:                1.481 kcal/mol
   Total Entropy:                30.125  cal/mol.K

 Total job time:  0.51s(wall), 2.84s(cpu)
        *  Thank you very much for using Q-Chem.  Have a nice day.  *
